[
  
  "DYK? Central banks around the world are major holders of gold, using it as a hedge against currency risk"

  "DYK? Brent Crude and WTI (West Texas Intermediate) are the two primary benchmark oils used for pricing"

  
  "DYK? Bitcoin's total supply is capped at 21 million, making it a deflationary asset by design"

  
  "DYK? The Indian stock market's two major indices are the BSE Sensex and NSE Nifty 50"

  
  "DYK? Gold is so malleable that a single ounce can be stretched into a wire over 50 miles long"

  
  "DYK? OPEC (Organization of the Petroleum Exporting Countries) controls about 40% of the world's crude oil supply"

  
  "DYK? The first real-world Bitcoin transaction was for two pizzas, worth about $41 in 2010 Today, that Bitcoin is worth millions"

  
  "DYK? The Indian rupee symbol (₹) was adopted in 2010, designed by D Udaya Kumar"

  
  "DYK? All the gold ever mined in human history would fit into about three Olympic-sized swimming pools"

  
  "DYK? The 1973 oil crisis caused oil prices to quadruple, leading to global economic shocks"

  
  "DYK? Bitcoin mining consumes more electricity annually than some entire countries like Argentina"

  
  "DYK? India's GDP crossed $3 trillion in 2021, making it the 6th largest economy in the world"

  
  "DYK? Gold is chemically inert, which means it doesn't rust or corrode, making it perfect for jewelry and electronics"

  
  "DYK? The US Strategic Petroleum Reserve is the largest emergency oil storage in the world, with a capacity of 727 million barrels"

  
  "DYK? Bitcoin's blockchain technology makes transactions irreversible, preventing chargebacks"

  
  "DYK? The Bombay Stock Exchange (BSE) is Asia's oldest stock exchange, established in 1875"

  
  "DYK? Gold nanoparticles are used in modern medicine for drug delivery and cancer treatment"

  
  "DYK? Saudi Arabia has about 17% of the world's proven petroleum reserves, the largest of any country"

  
  "DYK? Bitcoin's pseudonymous creator, Satoshi Nakamoto, is estimated to own about 1 million BTC, untouched since 2010"

  
  "DYK? India is the world's second-largest consumer of gold, after China"

  
  "DYK? The gold standard, where currencies were backed by gold, was abandoned by most countries by the 1970s"

  
  "DYK? Venezuela has the largest proven oil reserves in the world, surpassing Saudi Arabia"

  
  "DYK? Bitcoin's price volatility often increases around halving events, which occur every four years"

  
  "DYK? The Indian government demonetized 500 and 1000 rupee notes in 2016 to combat black money"

  
  "DYK? Fort Knox holds about 147 million ounces of gold, about half of the US Treasury's reserves"

  
  "DYK? The Permian Basin in Texas is the highest-producing oil field in the United States"

  
  "DYK? Bitcoin's market capitalization briefly surpassed $1 trillion in 2021"

  
  "DYK? India's foreign exchange reserves crossed $600 billion for the first time in 2021"

  
  "DYK? Gold is so dense that one cubic foot weighs over half a ton"

  
  "DYK? The 2020 oil price war between Russia and Saudi Arabia caused WTI prices to briefly turn negative"

  
  "DYK? Bitcoin's Lightning Network enables instant, low-cost transactions by processing them off-chain"

  
  "DYK? India's IT sector contributes about 8% of the country's GDP and employs over 4 million people"

  
  "DYK? The largest gold nugget ever found was the 'Welcome Stranger,' discovered in Australia in 1869, weighing 2316 troy ounces"

  
  "DYK? Fracking technology revolutionized the US oil industry, making it the world's top oil producer"

  
  "DYK? Bitcoin's decentralized nature means no single entity controls it, unlike traditional currencies"

  
  "DYK? India's GST (Goods and Services Tax) implementation in 2017 unified the country's complex tax system"

  
  "DYK? Gold is edible and is used in some luxury foods and drinks as gold leaf"

  
  "DYK? The Keystone XL pipeline, canceled in 2021, was designed to carry 830,000 barrels of oil daily from Canada to the US"

  
  "DYK? Bitcoin's proof-of-work consensus mechanism requires miners to solve complex mathematical problems"

  
  "DYK? India's retail inflation is primarily measured by the Consumer Price Index (CPI)"

  
  "DYK? The World Gold Council estimates that about 197,576 tonnes of gold have been mined throughout history"

  
  "DYK? The 1990 Gulf War caused oil prices to spike due to supply disruptions from the Middle East"

  
  "DYK? Bitcoin's private keys, if lost, mean permanent loss of access to those coins, with an estimated 20% of all BTC already lost"

  
  "DYK? India's Unified Payments Interface (UPI) revolutionized digital payments, processing over 5 billion monthly transactions"

  
  "DYK? Gold is an excellent conductor of electricity, which is why it's used in electronics like smartphones and computers"

  
  "DYK? The US shale revolution turned the country from a net oil importer to a net exporter for the first time in decades"

  
  "DYK? Bitcoin's decentralized ledger (blockchain) is publicly viewable, ensuring transparency of all transactions"

  
  "DYK? India's mutual fund industry has grown to over $500 billion in assets under management as of 2022"

  
  "DYK? The London Bullion Market Association (LBMA) sets the global benchmark price for gold twice daily"

  
  "DYK? The 2014 oil price crash was caused by oversupply and reduced demand, with prices falling from $100 to under $30 per barrel"

  
  "DYK? Bitcoin's energy consumption per transaction is equivalent to the power used by an average US household for 60 days"

  
  "DYK? India's forex reserves include gold, foreign currency assets, SDRs, and IMF reserve positions"

  
  "DYK? Gold can be found on every continent on Earth, with mining operations in over 90 countries"

  
  "DYK? The Strait of Hormuz, between Oman and Iran, is the world's most important oil chokepoint, with 20% of global oil passing through"

  
  "DYK? Bitcoin's scarcity is mathematically enforced by its code, with new coins created at a predictable, decreasing rate"

  
  "DYK? India's banking sector is dominated by public sector banks, which hold about 60% of total banking assets"

  
  "DYK? The largest gold vault in the world is the Federal Reserve Bank of New York's vault, holding about 6,350 tonnes"

  
  "DYK? The 2008 financial crisis saw oil prices drop from $147 to $30 per barrel in just five months"

  
  "DYK? Bitcoin's price is highly correlated with tech stocks like Tesla and MicroStrategy that hold BTC on their balance sheets"

  
  "DYK? India's corporate tax rate was reduced to 22% in 2019 to attract foreign investment and boost economic growth"

  
  "DYK? Gold is the only metal that is yellow or golden in color naturally; other metals require alloying or treatment"

  
  "DYK? The Dakota Access Pipeline, completed in 2017, can transport up to 570,000 barrels of oil per day from North Dakota to Illinois"

  
  "DYK? Bitcoin's Taproot upgrade in 2021 improved privacy and efficiency by enabling Schnorr signatures"

  
  "DYK? India's insurance penetration (premiums as % of GDP) is about 42%, lower than the global average of 74%"

  
  "DYK? The 'Golden Ratio' (1618) is often used by traders to predict price movements in gold markets"

  
  "DYK? The Deepwater Horizon oil spill in 2010 released about 49 million barrels of oil into the Gulf of Mexico"

  
  "DYK? Bitcoin's hashrate, measuring computational power securing the network, reached 200 exahashes per second in 2022"

  
  "DYK? India's direct tax collections crossed ₹14 lakh crore for the first time in FY 2021-22"

  
  "DYK? Gold's atomic number is 79, making it one of the higher atomic number elements that occur naturally"

  
  "DYK? The SPR (Strategic Petroleum Reserve) release is a tool used by governments to stabilize oil prices during supply shocks"

  
  "DYK? Bitcoin's dominance index measures its market cap relative to the total crypto market, typically between 40-60%"

  
  "DYK? India's fiscal deficit target for FY 2022-23 was set at 64% of GDP"

  
  "DYK? The largest gold coin ever minted was by the Perth Mint in 2011, weighing 1 tonne and worth about $50 million"

  
  "DYK? The 2022 Russia-Ukraine war caused Brent crude to surge above $130/barrel, the highest since 2008"

  
  "DYK? Bitcoin's UTXO (Unspent Transaction Output) model differs from traditional account-based systems used by banks"

  
  "DYK? India's public debt-to-GDP ratio is about 90%, higher than many emerging market peers"

  
  "DYK? Gold is non-toxic and biologically inert, which is why it's used in dental work and medical implants"

  
  "DYK? The US became a net petroleum exporter in 2020 for the first time since at least 1949"

  
  "DYK? Bitcoin's difficulty adjustment occurs every 2016 blocks (~2 weeks) to maintain a 10-minute block time"

  
  "DYK? India's current account deficit widened to 44% of GDP in Q2 2022, the highest in a decade"

  
  "DYK? The term 'carat' for gold purity comes from carob seeds, which were historically used as counterweights in balances"

  
  "DYK? The IEA (International Energy Agency) recommends maintaining oil stocks equivalent to 90 days of net imports for member countries"

  
  "DYK? Bitcoin's SegWit (Segregated Witness) upgrade in 2017 increased block capacity by separating signature data"

  
  "DYK? India's forex reserves can cover about 9 months of imports, considered a healthy buffer by economists"

  
  "DYK? Gold's density is 1932 g/cm³, meaning it's over 19 times heavier than an equal volume of water"

  
  "DYK? The 1979 Iranian Revolution caused the second oil shock, with prices nearly doubling in a year"

  
  "DYK? Bitcoin's 'HODL' meme originated from a 2013 typo in a forum post and became a popular investment strategy"

  
  "DYK? India's retail investor base crossed 100 million in 2022, driven by demat account openings"

  
  "DYK? The Krugerrand, introduced in 1967, was the first modern gold bullion coin for investment purposes"

  
  "DYK? Oil refineries use fractional distillation to separate crude oil into different products like gasoline and diesel"

  
  "DYK? Bitcoin's 'whales' (entities holding 1000+ BTC) control about 40% of all circulating supply"

  
  "DYK? India's bond market is dominated by government securities, which account for about 80% of trading volume"

  
  "DYK? Gold's purity is measured in karats, with 24k being 999% pure and 18k being 75% gold"

  
  "DYK? The 2019 drone attacks on Saudi Arabia's Abqaiq oil facility temporarily knocked out 5% of global oil supply"

  
  "DYK? Bitcoin's pseudonymity means transactions are tied to wallet addresses rather than real-world identities"

  
  "DYK? India's corporate bond market is relatively underdeveloped, accounting for less than 20% of GDP"

  
  "DYK? The 'Golden Cross' technical pattern occurs when a 50-day moving average crosses above a 200-day moving average"

  
  "DYK? Oil futures contracts on NYMEX specify delivery of 1000 barrels of oil per contract"

  
  "DYK? Bitcoin's 'not your keys, not your coins' mantra emphasizes the importance of self-custody in crypto"

  
  "DYK? India's SEBI (Securities and Exchange Board) regulates capital markets with strict insider trading rules"

  
  "DYK? Gold's value is remarkably stable over centuries - an ounce bought a fine toga in Roman times and still buys a fine suit today"

  
  "DYK? The Bakken Formation in North Dakota was one of the biggest shale oil discoveries, with up to 74 billion barrels recoverable"

  
  "DYK? Bitcoin's 'S2F' (Stock-to-Flow) model compares existing supply to new production, predicting long-term price appreciation"

  
  "DYK? India's NPA (Non-Performing Assets) crisis in public sector banks peaked at over 11% of loans in 2018"

  
  "DYK? Gold leaf can be beaten so thin that it becomes semi-transparent, with thicknesses of about 01 microns"

  
  "DYK? The Brent crude benchmark actually refers to a blend of oil from 15 different fields in the North Sea"

  
  "DYK? Bitcoin's 'shitcoin' term refers to alternative cryptocurrencies with little utility or value proposition"

  
  "DYK? India's credit-to-GDP ratio is about 56%, lower than China's 180% and the US's 230%"

  
  "DYK? The 'Death Cross' is the opposite of the Golden Cross, when the 50-day MA crosses below the 200-day MA, seen as bearish"

  
  "DYK? The SPR release in 2022 of 180 million barrels was the largest in US history to combat high oil prices"

  
  "DYK? Bitcoin's 'maximalists' believe BTC will become the sole dominant cryptocurrency, rendering others obsolete"

  
  "DYK? India's REER (Real Effective Exchange Rate) measures the rupee's value against a basket of trade-weighted currencies"

  
  "DYK? Gold's reflectivity makes it ideal for coating spacecraft visors and satellites to reflect infrared radiation"

  
  "DYK? The 'crack spread' refers to the difference between crude oil prices and petroleum product prices (gasoline, diesel)"

  
  "DYK? Bitcoin's 'FOMO' (Fear Of Missing Out) drives retail investors to buy during price rallies, often near peaks"

  
  "DYK? India's PMI (Purchasing Managers' Index) above 50 indicates economic expansion, below 50 indicates contraction"

  
  "DYK? The 'Gold Fix' was historically set by five bullion banks meeting twice daily; now it's an electronic auction process"

  
  "DYK? The WTI-Brent spread reflects differences in quality and transportation costs between US and international oil"

  
  "DYK? Bitcoin's 'FUD' (Fear, Uncertainty, Doubt) describes negative sentiment that can drive price declines"

  
  "DYK? India's FDI (Foreign Direct Investment) reached $8357 billion in FY 2021-22, the highest ever"

  
  "DYK? Gold's thermal conductivity is used in astronaut helmets to regulate temperature in extreme space conditions"

  
  "DYK? The 'contango' market structure occurs when futures prices are higher than spot prices, encouraging storage"

  
  "DYK? Bitcoin's 'DYOR' (Do Your Own Research) emphasizes personal responsibility in crypto investing"

  
  "DYK? India's IIP (Index of Industrial Production) measures short-term changes in industrial sector output"

  
  "DYK? The 'Goldilocks Zone' in mining refers to optimal conditions where extraction is most economically viable"

  
  "DYK? The 'backwardation' market structure occurs when spot prices are higher than futures, indicating tight supply"

  
  "DYK? Bitcoin's 'NGU' (Number Go Up) technology refers to its tendency to appreciate over long time horizons"

  
  "DYK? India's core inflation excludes volatile food and fuel prices to reveal underlying price trends"

  
  "DYK? Gold's electron configuration [Xe] 4f14 5d10 6s1 makes it resistant to oxidation and corrosion"

  
  "DYK? The 'Widowmaker' trade refers to natural gas futures, known for extreme volatility and trader losses"

  
  "DYK? Bitcoin's 'rekt' slang describes traders who suffer heavy losses from poor investment decisions"

  
  "DYK? India's CAD (Current Account Deficit) occurs when imports exceed exports plus net income from abroad"

  
  "DYK? The 'Golden Butterfly' portfolio allocates 20% to gold as part of a diversified investment strategy"

  
  "DYK? Oil tanker rates surge during contango markets as traders store oil at sea to sell later at higher prices"

  
  "DYK? Bitcoin's 'laser eyes' meme represents maximalist belief in BTC reaching $100,000 or more"

  
  "DYK? India's WPI (Wholesale Price Index) measures inflation at the wholesale level, differing from CPI"

  
  "DYK? Gold's Young's modulus (measure of stiffness) is 79 GPa, making it relatively soft compared to other metals"

  
  "DYK? The 'Dated Brent' benchmark assesses prices for physical cargoes loading within 10-21 days"

  
  "DYK? Bitcoin's 'WAGMI' (We're All Gonna Make It) expresses community optimism during market downturns"

  
  "DYK? India's FPI (Foreign Portfolio Investment) flows are highly sensitive to global risk appetite and US rates"

  
  "DYK? The 'Gold/Silver ratio' measures how many ounces of silver it takes to buy one ounce of gold, historically ~60:1"

  
  "DYK? The 'paper barrel' refers to oil futures contracts that vastly outnumber physical barrels available for delivery"

  
  "DYK? Bitcoin's 'NGMI' (Not Gonna Make It) refers to those who sell during dips and miss long-term gains"

  
  "DYK? India's MSP (Minimum Support Price) system guarantees farmers prices for 23 crops, including rice and wheat"

  
  "DYK? Gold's Vickers hardness is about 25 HV, making it softer than platinum (40 HV) or steel (150-900 HV)"

  
  "DYK? The 'Arab Light' crude grade is Saudi Arabia's flagship export oil, with API gravity of 33°"

  
  "DYK? Bitcoin's 'hash war' refers to competing chains battling for miner support through computational power"

  
  "DYK? India's GVA (Gross Value Added) measures economic output by deducting input costs from total output"

  
  "DYK? The 'Gold Carry Trade' involves borrowing in low-interest currencies to buy gold as a hedge"

  
  "DYK? The 'sour crude' designation refers to oil with high sulfur content (>05%), requiring more refining"

  
  "DYK? Bitcoin's 'timechain' emphasizes its immutable record of transactions ordered by timestamps"

  
  "DYK? India's CRR (Cash Reserve Ratio) requires banks to keep 45% of deposits with the RBI as of 2022"

  
  "DYK? Gold's thermal neutron absorption cross-section makes it useful in nuclear reactor shielding"

  
  "DYK? The 'sweet crude' designation refers to low-sulfur oil (<05%) that's easier and cheaper to refine"

  
  "DYK? Bitcoin's 'unconfiscatable' nature means private keys cannot be seized without knowledge/access"

  
  "DYK? India's SLR (Statutory Liquidity Ratio) requires banks to maintain 18% of deposits in liquid assets"

  
  "DYK? The 'Gold Forward Offered Rate' (GOFO) was a benchmark for gold leasing rates, discontinued in 2015"

  
  "DYK? The 'Dated Brent vs WTI arbitrage' allows traders to profit from price differences between benchmarks"

  
  "DYK? Bitcoin's 'sound money' properties include verifiable scarcity, durability, and resistance to censorship"

  
  "DYK? India's PCA (Prompt Corrective Action) framework imposes restrictions on financially weak banks"

  
  "DYK? Gold's electrical resistance increases linearly with temperature, unlike most metals"

  
  "DYK? The 'Brent complex' includes Brent, Forties, Oseberg, and Ekofisk (BFOE) grades that determine the benchmark"

  
  "DYK? Bitcoin's 'orange pill' refers to the moment someone understands Bitcoin's revolutionary potential"

  
  "DYK? India's T-bills (Treasury bills) are short-term government securities with maturities up to 364 days"

  
  "DYK? The 'Gold LIBOR' was a daily reference rate for gold leasing, discontinued alongside other LIBOR rates"

  
  "DYK? The 'WTI Midland' grade was added to Brent pricing in 2023 to reflect growing US exports"

  
  "DYK? Bitcoin's 'runes' protocol enables creating fungible tokens directly on the Bitcoin blockchain"

  
  "DYK? India's G-Sec yields are benchmarks for corporate borrowing rates across the economy"

  
  "DYK? Gold's Pauli paramagnetism makes it weakly attracted to magnetic fields, unlike ferromagnetic materials"

  
  "DYK? The 'CFD (Contract for Difference) market allows oil speculation without owning physical barrels"

  
  "DYK? Bitcoin's 'ordinals' protocol enables NFT-like inscriptions directly on the Bitcoin blockchain"

  
  "DYK? India's OMO (Open Market Operations) are RBI's tool to manage liquidity through bond purchases/sales"

  
  "DYK? The 'Gold Basis' measures the difference between spot prices and futures prices for gold"

  
  "DYK? The 'Urals discount' reflects price reductions for Russian oil due to sanctions and payment difficulties"

  
  "DYK? Bitcoin's 'BIPs' (Bitcoin Improvement Proposals) outline suggested protocol changes and upgrades"

  
  "DYK? India's CPI basket weights food at 39%, housing at 10%, and fuel at 7% for urban consumers"

  
  "DYK? Gold's Debye temperature (170K) characterizes its vibrational properties at atomic scales"

  
  "DYK? The 'DME Oman' crude benchmark reflects Middle Eastern oil pricing for Asian markets"

  
  "DYK? Bitcoin's 'sidechains' like Liquid enable faster transactions while anchoring security to Bitcoin"

  
  "DYK? India's FRA (Forward Rate Agreement) market allows hedging against future interest rate movements"

  
  "DYK? The 'Gold Lease Rate' represents the cost to borrow gold, often used by central banks and miners"

  
  "DYK? The 'Mars crude' benchmark reflects US Gulf Coast heavy sour oil pricing for export markets"

  
  "DYK? Bitcoin's 'coinjoin' transactions combine multiple payments to enhance privacy on the blockchain"

  
  "DYK? India's ECB (External Commercial Borrowing) allows companies to raise loans from foreign lenders"

  
  "DYK? Gold's Knoop hardness (200) makes it softer than quartz (820) but harder than gypsum (32)"

  
  "DYK? The 'Baltic Exchange Dirty Tanker Index' tracks rates for crude oil transportation by sea"

  
  "DYK? Bitcoin's 'RGB protocol' enables smart contracts and scalable private transactions off-chain"

  
  "DYK? India's FCNR(B) deposits allow NRIs to hold foreign currency deposits in Indian banks"

  
  "DYK? The 'Gold Volatility Index' (GVZ) measures market expectations of gold price volatility"

  
  "DYK? The 'ANS (Alaska North Slope) crude benchmark reflects West Coast US oil pricing"

  
  "DYK? Bitcoin's 'statechains' enable off-chain transfers while maintaining on-chain settlement"

  
  "DYK? India's NDS-OM (Negotiated Dealing System-Order Matching) is the RBI's electronic bond trading platform"

  
  "DYK? Gold's specific heat capacity (0129 J/g°C) means it heats up quickly compared to other metals"

  
  "DYK? The 'Baltic Exchange Clean Tanker Index' tracks rates for refined product transportation"

  
  "DYK? Bitcoin's 'drivechains' propose a method for two-way pegs between Bitcoin and sidechains"

  
  "DYK? India's CP (Commercial Paper) market allows corporations to raise short-term unsecured funds"

  
  "DYK? The 'Gold/S&P 500 ratio' measures gold's performance relative to the US stock market"

  
  "DYK? The 'Dubai crude' benchmark reflects Middle Eastern oil pricing for Asian markets"

  
  "DYK? Bitcoin's 'Fedimints' are community custody solutions to improve scalability and privacy"

  
  "DYK? India's CD (Certificate of Deposit) market allows banks to raise short-term funds from investors"

  
  "DYK? Gold's linear coefficient of thermal expansion (142 µm/m·K) affects its use in precision instruments"

  
  "DYK? The 'Bonny Light' crude benchmark reflects Nigerian oil pricing for export markets"

  
  "DYK? Bitcoin's 'Ark' protocol proposes confidential transactions through elliptic curve cryptography"

  
  "DYK? India's ECB guidelines specify eligible borrowers, recognized lenders, and end-use restrictions"

  
  "DYK? The 'Gold/Oil ratio' measures how many barrels of oil one ounce of gold can buy"

  
  "DYK? The 'Tapis crude' benchmark reflects light sweet oil from Malaysia for Asian markets"

  
  "DYK? Bitcoin's 'SNARKs' (Succinct Non-Interactive Arguments of Knowledge) enable efficient zero-knowledge proofs"

  
  "DYK? India's Masala Bonds are rupee-denominated bonds issued overseas to attract foreign capital"

  
  "DYK? Gold's magnetic susceptibility (-28×10^-6) makes it slightly diamagnetic (repelled by magnets)"

  
  "DYK? The 'ESPO (East Siberia-Pacific Ocean) crude benchmark reflects Russian oil pricing for Asia"

  
  "DYK? Bitcoin's 'STARKs' (Scalable Transparent Arguments of Knowledge) improve upon SNARKs' trust assumptions"

  
  "DYK? India's SDL (State Development Loans) are bonds issued by state governments to fund expenditures"

  
  "DYK? The 'Gold/Bitcoin ratio' tracks how many BTC one ounce of gold can buy, measuring relative value"

  
  "DYK? The 'Basrah Light' crude benchmark reflects Iraqi oil pricing for export markets"

  
  "DYK? Bitcoin's 'channel factories' enable batch opening of Lightning Network payment channels"

  
  "DYK? India's STRIPS (Separate Trading of Registered Interest and Principal Securities) allow trading bond components separately"

  
  "DYK? Gold's bulk modulus (180 GPa) measures its resistance to uniform compression"

  
  "DYK? The 'Western Canadian Select' benchmark reflects heavy Canadian oil pricing"

  
  "DYK? Bitcoin's 'eltoo' upgrade proposes simplifying Lightning Network channel updates"

  
  "DYK? India's IRF (Interest Rate Futures) allow hedging against interest rate fluctuations"

  
  "DYK? The 'Gold VIX' measures expected 30-day volatility of gold prices, similar to the stock market VIX"

  
  "DYK? The 'Murban crude' benchmark reflects Abu Dhabi's flagship export oil grade"

  
  "DYK? Bitcoin's 'SIGHASH_ANYPREVOUT' enables more flexible Lightning Network constructions"

  
  "DYK? India's FRB (Floating Rate Bonds) have interest payments linked to a benchmark rate"

  
  "DYK? Gold's speed of sound (3240 m/s) is nearly 10 times faster than in air (343 m/s)"

  
  "DYK? The 'Cushing OK storage hub' is the delivery point for WTI futures, with 90 million barrels capacity"

  
  "DYK? Bitcoin's 'MWEB' (Mimblewimble Extension Blocks) proposes confidential transactions"

  
  "DYK? India's ILS (Inflation-Linked Securities) provide protection against inflation for investors"

  
  "DYK? The 'Gold/Silver spread' refers to trading the price relationship between the two precious metals"

  
  "DYK? The 'Dated Brent vs Dubai spread' reflects pricing differences between Atlantic and Middle Eastern oil"

  
  "DYK? Bitcoin's 'CoinSwap' enhances privacy by coordinating transactions between multiple parties"

  
  "DYK? India's CRISIL, ICRA, and CARE are major credit rating agencies for domestic debt instruments"

  
  "DYK? Gold's surface plasmon resonance gives nanoparticles their distinctive red/purple colors"

  
  "DYK? The 'Louisiana Light Sweet' crude benchmark reflects US Gulf Coast oil pricing"

  
  "DYK? Bitcoin's 'PayJoin' transactions combine payments from multiple parties in a single transaction"

  
  "DYK? India's G-SAP (Government Securities Acquisition Programme) was RBI's bond-buying program during COVID"

  
  "DYK? The 'Gold/Crude ratio' measures how many barrels of oil one ounce of gold can purchase"

  
  "DYK? The 'Platts Market on Close' (MOC) process determines daily oil price assessments"

  
  "DYK? Bitcoin's 'Silent Payments' enable reusable payment codes without address reuse"

  
  "DYK? India's LAF (Liquidity Adjustment Facility) includes repo and reverse repo operations by RBI"

  
  "DYK? Gold's work function (51 eV) is the energy needed to remove an electron from its surface"

  
  "DYK? The 'Mars-Ursa spread' reflects pricing differences between US Gulf Coast and international crude"

  
  "DYK? Bitcoin's 'BIP47' enables reusable payment codes for improved privacy in recurring transactions"

  
  "DYK? India's VRR (Variable Rate Repo) auctions allow flexible liquidity injection by the RBI"

  
  "DYK? The 'Gold/Platinum ratio' measures relative value between the two precious metals"

  
  "DYK? The 'Dated Brent vs CFDs spread' reflects differences between physical and paper oil markets"

  
  "DYK? Bitcoin's 'BIP322' proposes a standard for message signing to prove ownership of addresses"

  
  "DYK? India's MSS (Market Stabilisation Scheme) bonds help the RBI manage excess liquidity"

  
  "DYK? Gold's electron affinity (2228 kJ/mol) measures energy released adding an electron"

  
  "DYK? The 'Brent-Dubai EFS (Exchange for Swaps)' reflects arbitrage between Atlantic and Middle Eastern oil"

  
  "DYK? Bitcoin's 'BIP119' proposes CHECKTEMPLATEVERIFY for improved smart contract capabilities"

  
  "DYK? India's SDF (Standing Deposit Facility) allows banks to park excess liquidity with RBI"

  
  "DYK? The 'Gold/Palladium ratio' measures relative value between the two platinum group metals"

  
  "DYK? The 'Dated Brent vs ICE Brent spread' reflects differences between physical and futures pricing"

  
  "DYK? Bitcoin's 'BIP300' proposes drivechains for two-way pegs with sidechains"

  
  "DYK? India's LRMT (Liberalised Remittance Scheme) allows residents to send $250,000 abroad annually"

  
  "DYK? Gold's electrical resistivity (2214 nΩ·m) increases linearly with temperature"

  
  "DYK? The 'Brent-WTI arbitrage' reflects transatlantic oil price differences and transportation costs"

  
  "DYK? Bitcoin's 'BIP301' proposes blind merged mining for sidechain security"

  
  "DYK? India's FPI limits specify maximum foreign ownership in Indian companies across sectors"

  
  "DYK? The 'Gold/Rhodium ratio' measures relative value between gold and the rarest platinum group metal"

  
  "DYK? The 'Dated Brent vs DME Oman spread' reflects differences between Atlantic and Middle Eastern pricing"

  
  "DYK? Bitcoin's 'BIP350' proposes output script descriptors for improved wallet interoperability"

  
  "DYK? India's FEMA (Foreign Exchange Management Act) regulates all foreign exchange transactions"

  
  "DYK? Gold's thermal neutron capture cross-section (9865 barns) makes it useful in nuclear applications"

  
  "DYK? The 'Brent-Urals spread' reflects pricing differences between global and Russian crude grades"

  
  "DYK? Bitcoin's 'BIP360' proposes silent payments for improved privacy"

  
  "DYK? India's ODI (Overseas Direct Investment) regulations govern foreign investments by Indian entities"

  
  "DYK? The 'Gold/Iridium ratio' measures relative value between gold and the corrosion-resistant metal"

  
  "DYK? The 'Dated Brent vs TAPIS spread' reflects differences between Atlantic and Asian crude pricing"

  
  "DYK? Bitcoin's 'BIP370' proposes PayJoin transaction format standardization"

  
  "DYK? India's FDI automatic route allows investments without government approval in specified sectors"

  
  "DYK? Gold's superconducting transition occurs at extremely low temperatures (<100 mK)"

  
  "DYK? The 'Brent-Murban spread' reflects pricing differences between global and Middle Eastern crude"

  
  "DYK? Bitcoin's 'BIP380' proposes output script descriptors for improved wallet interoperability"

  
  "DYK? India's ECB automatic route allows foreign borrowing without RBI approval within specified limits"
  
]
